HEADER
"PSFversion" "1.00"
"Log Generator" "drlLog rev. 1.0"
"Log Time Stamp" "Wed Oct 30 18:14:00 2024"
"simulator" "spectre"
"version" "17.1.0.627.isr15"
"date" "6:14:00 PM, Wed Oct 30, 2024"
"design" "// Default Spectre Simulation run title card."
"signalNameType" "spectre"
"simMode" "Spectre"
"measdgt" 0
"ingold" 2
"sst2usecolon" 0
TYPE
"analysisInst" STRUCT(
"analysisType" STRING *
"dataFile" STRING *
"format" STRING *
"parent" STRING *
"sweepVariable" ARRAY ( * ) STRING *
"description" STRING *
)
VALUE
"tran1-tran" "analysisInst" (
"tran"
"tran1.tran.tran"
"PSF"
""
("time")
"Transient Analysis `tran1': time = (0 s -> 4.1 us)"
) PROP(
"data_type" "swept_scalar"
)

END
